# vtk DataFile Version 2.0
step 0 time 0.000000e+00 normalized time 0.000000e+00, generated by -c
ASCII
DATASET UNSTRUCTURED_GRID

POINTS 36 float
-2.500000e+00 -2.500000e+00 0.000000e+00
-2.500000e+00 -1.500000e+00 0.000000e+00
-2.500000e+00 -5.000000e-01 0.000000e+00
-2.500000e+00 5.000000e-01 0.000000e+00
-2.500000e+00 1.500000e+00 0.000000e+00
-2.500000e+00 2.500000e+00 0.000000e+00
-1.500000e+00 -2.500000e+00 0.000000e+00
-1.500000e+00 -1.500000e+00 0.000000e+00
-1.500000e+00 -5.000000e-01 0.000000e+00
-1.500000e+00 5.000000e-01 0.000000e+00
-1.500000e+00 1.500000e+00 0.000000e+00
-1.500000e+00 2.500000e+00 0.000000e+00
-5.000000e-01 -2.500000e+00 0.000000e+00
-5.000000e-01 -1.500000e+00 0.000000e+00
-5.000000e-01 -5.000000e-01 0.000000e+00
-5.000000e-01 5.000000e-01 0.000000e+00
-5.000000e-01 1.500000e+00 0.000000e+00
-5.000000e-01 2.500000e+00 0.000000e+00
5.000000e-01 -2.500000e+00 0.000000e+00
5.000000e-01 -1.500000e+00 0.000000e+00
5.000000e-01 -5.000000e-01 0.000000e+00
5.000000e-01 5.000000e-01 0.000000e+00
5.000000e-01 1.500000e+00 0.000000e+00
5.000000e-01 2.500000e+00 0.000000e+00
1.500000e+00 -2.500000e+00 0.000000e+00
1.500000e+00 -1.500000e+00 0.000000e+00
1.500000e+00 -5.000000e-01 0.000000e+00
1.500000e+00 5.000000e-01 0.000000e+00
1.500000e+00 1.500000e+00 0.000000e+00
1.500000e+00 2.500000e+00 0.000000e+00
2.500000e+00 -2.500000e+00 0.000000e+00
2.500000e+00 -1.500000e+00 0.000000e+00
2.500000e+00 -5.000000e-01 0.000000e+00
2.500000e+00 5.000000e-01 0.000000e+00
2.500000e+00 1.500000e+00 0.000000e+00
2.500000e+00 2.500000e+00 0.000000e+00

CELLS 25 125
4 0 6 7 1 
4 1 7 8 2 
4 2 8 9 3 
4 3 9 10 4 
4 4 10 11 5 
4 6 12 13 7 
4 7 13 14 8 
4 8 14 15 9 
4 9 15 16 10 
4 10 16 17 11 
4 12 18 19 13 
4 13 19 20 14 
4 14 20 21 15 
4 15 21 22 16 
4 16 22 23 17 
4 18 24 25 19 
4 19 25 26 20 
4 20 26 27 21 
4 21 27 28 22 
4 22 28 29 23 
4 24 30 31 25 
4 25 31 32 26 
4 26 32 33 27 
4 27 33 34 28 
4 28 34 35 29 

CELL_TYPES 25
9
9
9
9
9
9
9
9
9
9
9
9
9
9
9
9
9
9
9
9
9
9
9
9
9

POINT_DATA 36

SCALARS node_groups int 1
LOOKUP_TABLE default
10
10
10
10
10
10
6
0
0
0
0
5
6
0
0
0
0
5
6
0
0
0
0
5
6
0
0
0
0
5
9
9
9
9
9
9

SCALARS region_shift_points float 1
LOOKUP_TABLE default
0.000000e+00
0.000000e+00
0.000000e+00
0.000000e+00
0.000000e+00
0.000000e+00
0.000000e+00
0.000000e+00
0.000000e+00
0.000000e+00
0.000000e+00
0.000000e+00
0.000000e+00
0.000000e+00
0.000000e+00
0.000000e+00
0.000000e+00
0.000000e+00
0.000000e+00
0.000000e+00
0.000000e+00
0.000000e+00
0.000000e+00
0.000000e+00
0.000000e+00
0.000000e+00
0.000000e+00
0.000000e+00
0.000000e+00
0.000000e+00
1.000000e+00
0.000000e+00
0.000000e+00
0.000000e+00
0.000000e+00
1.000000e+00

SCALARS region_x_plus float 1
LOOKUP_TABLE default
0.000000e+00
0.000000e+00
0.000000e+00
0.000000e+00
0.000000e+00
0.000000e+00
0.000000e+00
0.000000e+00
0.000000e+00
0.000000e+00
0.000000e+00
0.000000e+00
0.000000e+00
0.000000e+00
0.000000e+00
0.000000e+00
0.000000e+00
0.000000e+00
0.000000e+00
0.000000e+00
0.000000e+00
0.000000e+00
0.000000e+00
0.000000e+00
0.000000e+00
0.000000e+00
0.000000e+00
0.000000e+00
0.000000e+00
0.000000e+00
1.000000e+00
1.000000e+00
1.000000e+00
1.000000e+00
1.000000e+00
1.000000e+00

SCALARS region_y_plus float 1
LOOKUP_TABLE default
0.000000e+00
0.000000e+00
0.000000e+00
0.000000e+00
0.000000e+00
1.000000e+00
0.000000e+00
0.000000e+00
0.000000e+00
0.000000e+00
0.000000e+00
1.000000e+00
0.000000e+00
0.000000e+00
0.000000e+00
0.000000e+00
0.000000e+00
1.000000e+00
0.000000e+00
0.000000e+00
0.000000e+00
0.000000e+00
0.000000e+00
1.000000e+00
0.000000e+00
0.000000e+00
0.000000e+00
0.000000e+00
0.000000e+00
1.000000e+00
0.000000e+00
0.000000e+00
0.000000e+00
0.000000e+00
0.000000e+00
1.000000e+00

SCALARS region_y_minus float 1
LOOKUP_TABLE default
1.000000e+00
0.000000e+00
0.000000e+00
0.000000e+00
0.000000e+00
0.000000e+00
1.000000e+00
0.000000e+00
0.000000e+00
0.000000e+00
0.000000e+00
0.000000e+00
1.000000e+00
0.000000e+00
0.000000e+00
0.000000e+00
0.000000e+00
0.000000e+00
1.000000e+00
0.000000e+00
0.000000e+00
0.000000e+00
0.000000e+00
0.000000e+00
1.000000e+00
0.000000e+00
0.000000e+00
0.000000e+00
0.000000e+00
0.000000e+00
1.000000e+00
0.000000e+00
0.000000e+00
0.000000e+00
0.000000e+00
0.000000e+00

SCALARS region_x_minus float 1
LOOKUP_TABLE default
1.000000e+00
1.000000e+00
1.000000e+00
1.000000e+00
1.000000e+00
1.000000e+00
0.000000e+00
0.000000e+00
0.000000e+00
0.000000e+00
0.000000e+00
0.000000e+00
0.000000e+00
0.000000e+00
0.000000e+00
0.000000e+00
0.000000e+00
0.000000e+00
0.000000e+00
0.000000e+00
0.000000e+00
0.000000e+00
0.000000e+00
0.000000e+00
0.000000e+00
0.000000e+00
0.000000e+00
0.000000e+00
0.000000e+00
0.000000e+00
0.000000e+00
0.000000e+00
0.000000e+00
0.000000e+00
0.000000e+00
0.000000e+00

SCALARS region_all float 1
LOOKUP_TABLE default
1.000000e+00
1.000000e+00
1.000000e+00
1.000000e+00
1.000000e+00
1.000000e+00
1.000000e+00
1.000000e+00
1.000000e+00
1.000000e+00
1.000000e+00
1.000000e+00
1.000000e+00
1.000000e+00
1.000000e+00
1.000000e+00
1.000000e+00
1.000000e+00
1.000000e+00
1.000000e+00
1.000000e+00
1.000000e+00
1.000000e+00
1.000000e+00
1.000000e+00
1.000000e+00
1.000000e+00
1.000000e+00
1.000000e+00
1.000000e+00
1.000000e+00
1.000000e+00
1.000000e+00
1.000000e+00
1.000000e+00
1.000000e+00

SCALARS region_fix_points float 1
LOOKUP_TABLE default
1.000000e+00
0.000000e+00
0.000000e+00
0.000000e+00
0.000000e+00
1.000000e+00
0.000000e+00
0.000000e+00
0.000000e+00
0.000000e+00
0.000000e+00
0.000000e+00
0.000000e+00
0.000000e+00
0.000000e+00
0.000000e+00
0.000000e+00
0.000000e+00
0.000000e+00
0.000000e+00
0.000000e+00
0.000000e+00
0.000000e+00
0.000000e+00
0.000000e+00
0.000000e+00
0.000000e+00
0.000000e+00
0.000000e+00
0.000000e+00
0.000000e+00
0.000000e+00
0.000000e+00
0.000000e+00
0.000000e+00
0.000000e+00

CELL_DATA 25
SCALARS mat_id int 1
LOOKUP_TABLE default
0
0
0
0
0
0
0
0
0
0
0
0
0
0
0
0
0
0
0
0
0
0
0
0
0
